LAMMPS data file via write_data, version 11 Aug 2017, timestep = 0

11520 atoms
1 atom types

0.0000000000000000e+00 2.1402000000000001e+01 xlo xhi
0.0000000000000000e+00 2.1402000000000001e+01 ylo yhi
0.0000000000000000e+00 1.4268000000000001e+02 zlo zhi

Masses

1 12.0107

Atoms # atomic

5 1 9.6235297074873194e-01 9.1061669252688959e-01 9.0061975012401485e-01 0 0 0
53 1 4.5139075895570668e+00 8.9794508342058821e-01 8.9222528664265055e-01 0 0 0
7 1 2.6885482213979230e+00 2.7299885524979475e+00 8.7556159062144090e-01 0 0 0
55 1 6.2193537046126934e+00 2.6819068584883157e+00 9.1243617490977069e-01 0 0 0
13 1 9.6199687654295229e-01 4.4512200909046840e+00 9.0371038524444913e-01 0 0 0
61 1 4.4279071532929875e+00 4.4724434405642164e+00 9.3617905351240849e-01 0 0 0
57 1 3.6040069054537258e+00 3.5608108563270333e+00 4.5826193114444011e-02 0 0 0
105 1 7.1232492293133047e+00 3.5808836035771003e+00 3.6578015289517277e-02 0 0 0
15 1 2.7128517747844403e+00 6.2472855640773179e+00 9.1076483030764166e-01 0 0 0
63 1 6.2726369113324161e+00 6.2555754219013320e+00 8.7546298298494030e-01 0 0 0
8 1 2.7131639140353925e+00 8.6210225094395687e-01 2.6876355307644184e+00 0 0 0
52 1 5.3782471352715895e+00 7.3304168973071628e-03 1.7916947590613101e+00 0 0 0
56 1 6.3118677305062283e+00 9.5680548999303161e-01 2.7014681054148668e+00 0 0 0
6 1 9.4896217916572578e-01 2.6612264802772789e+00 2.6983701181637758e+00 0 0 0
50 1 3.5942202610217771e+00 1.7651912749297163e+00 1.8260219507511937e+00 0 0 0
54 1 4.4627512684679091e+00 2.6565851801666427e+00 2.7415860056150931e+00 0 0 0
98 1 7.1230464758994643e+00 1.8405191664240781e+00 1.8075339283451022e+00 0 0 0
12 1 1.8513204086618793e+00 3.5647163337515853e+00 1.7812689595944857e+00 0 0 0
16 1 2.7238572381707464e+00 4.4727060440893771e+00 2.6740922790910950e+00 0 0 0
60 1 5.3533365219488367e+00 3.5746555223460286e+00 1.8099497575360910e+00 0 0 0
64 1 6.2773219158970042e+00 4.4440041756484234e+00 2.6573999143014482e+00 0 0 0
58 1 3.5484691874637826e+00 5.3676954471301865e+00 1.8377472476542587e+00 0 0 0
106 1 7.1056204353959425e+00 5.3437564640222091e+00 1.7540710842409393e+00 0 0 0
14 1 9.5168984287117986e-01 6.2201637260897815e+00 2.6869457761142184e+00 0 0 0
20 1 1.8156637840034755e+00 7.1140876342270678e+00 1.8275603356200429e+00 0 0 0
62 1 4.4771416289062307e+00 6.2065091788062476e+00 2.6963661911473640e+00 0 0 0
68 1 5.3578119568330962e+00 7.1158471379364885e+00 1.7679211428516388e+00 0 0 0
291 1 1.8270161043103275e+00 1.7808130082172711e+00 3.5612959480441901e+00 0 0 0
339 1 5.3918813055113954e+00 1.8015472038126266e+00 3.6258873272523475e+00 0 0 0
301 1 9.1524649549616854e-01 4.4732644080653792e+00 4.4448572118598424e+00 0 0 0
345 1 3.6039343091906733e+00 3.5599345274673078e+00 3.5687789690637679e+00 0 0 0
299 1 1.8478395262037961e+00 5.3660788931677628e+00 3.5807670490520511e+00 0 0 0
347 1 5.3701459530496019e+00 5.3371505078724697e+00 3.5762868131106824e+00 0 0 0
303 1 2.7737264660642595e+00 6.2501959120929369e+00 4.5052260881333170e+00 0 0 0
351 1 6.2460925366287183e+00 6.2383412070200190e+00 4.4526762438362102e+00 0 0 0
293 1 9.3185104134376406e-01 9.0887547119884138e-01 4.4544450295577462e+00 0 0 0
341 1 4.5077153181156024e+00 8.8069011254712659e-01 4.4772328101222509e+00 0 0 0
340 1 5.3831926875612073e+00 3.1301337817203471e-03 5.3615604139123088e+00 0 0 0
295 1 2.7168029311397377e+00 2.6828867023333713e+00 4.4640850207280396e+00 0 0 0
338 1 3.6152585383300564e+00 1.7937572410725151e+00 5.3269632179704098e+00 0 0 0
343 1 6.2892930522988557e+00 2.7166407038664744e+00 4.5028337134084664e+00 0 0 0
300 1 1.8164910528953975e+00 3.5833781846289803e+00 5.3747536520734869e+00 0 0 0
349 1 4.5350175868166929e+00 4.4601314542173682e+00 4.4483826849547530e+00 0 0 0
348 1 5.3958609369235617e+00 3.5770696094671175e+00 5.3555834107822626e+00 0 0 0
346 1 3.6435846465709885e+00 5.3710453771905176e+00 5.3821666655823490e+00 0 0 0
356 1 5.4523494846724141e+00 7.1333166243034434e+00 5.3757092266493363e+00 0 0 0
10 1 2.2439443968987061e-02 5.3365689133255465e+00 1.8086219820096481e+00 0 0 0
305 1 5.0046484720142788e-02 7.1257969758562645e+00 3.5523742442781070e+00 0 0 0
65 1 3.6288934642971498e+00 7.1295128005903932e+00 1.6739387061459002e-02 0 0 0
59 1 5.3508184235092386e+00 5.3506262267811708e+00 2.2941817723760995e-02 0 0 0
297 1 5.5194734593562354e-02 3.6036544959351118e+00 3.5747579138741088e+00 0 0 0
2 1 5.2207398280452913e-02 1.7957209379395873e+00 1.7832126558219641e+00 0 0 0
289 1 7.6075364494226597e-02 1.1419815901225441e-02 3.5969524079199333e+00 0 0 0
290 1 2.0066948469817797e-02 1.7692056977760668e+00 5.3098837992337176e+00 0 0 0
51 1 5.3778836564483843e+00 1.7997890044480562e+00 2.4977306555941801e-02 0 0 0
49 1 3.5975322051566869e+00 2.1370448992463376e-02 3.0087630508954738e-03 0 0 0
101 1 8.0757553766668693e+00 8.8023709072336209e-01 9.1940230609095830e-01 0 0 0
99 1 8.9613798283032970e+00 1.7724997789906192e+00 2.5996499718405727e-02 0 0 0
103 1 9.8398160888932509e+00 2.7313948727464545e+00 8.9695391849653405e-01 0 0 0
109 1 7.9906261621938457e+00 4.4816567000764662e+00 8.9289414135630818e-01 0 0 0
111 1 9.7989510034695915e+00 6.2181812324840875e+00 8.7329199667411750e-01 0 0 0
100 1 8.9971403164813353e+00 3.3124878449713888e-02 1.7724627320830828e+00 0 0 0
104 1 9.8207820427416692e+00 9.1797769920183858e-01 2.6682926628144776e+00 0 0 0
102 1 8.0099309471310853e+00 2.6920850908318812e+00 2.6823084152469105e+00 0 0 0
108 1 8.8901926947102652e+00 3.5702296422965722e+00 1.7610994766927563e+00 0 0 0
112 1 9.7932641315973985e+00 4.4454855176578167e+00 2.6484424250474716e+00 0 0 0
110 1 8.0669558653464488e+00 6.3178071673179588e+00 2.6558552115548877e+00 0 0 0
385 1 7.1811978966091399e+00 3.1907153139827194e-03 3.5571461903481039e+00 0 0 0
387 1 8.9311199938036125e+00 1.7824749751446223e+00 3.5909184134499630e+00 0 0 0
393 1 7.1705604998776655e+00 3.5894597403535422e+00 3.6174091825499048e+00 0 0 0
395 1 8.9759338012883649e+00 5.4007287333409746e+00 3.5201820877365573e+00 0 0 0
389 1 8.0798103791908229e+00 8.6723040704973442e-01 4.4876595649153534e+00 0 0 0
388 1 8.9727776904802123e+00 2.0631651142618151e-02 5.3866510370297993e+00 0 0 0
386 1 7.2026533317630603e+00 1.7870015249873996e+00 5.4004660495985783e+00 0 0 0
391 1 9.8817011700644990e+00 2.7031295789671086e+00 4.4503484057274676e+00 0 0 0
396 1 8.9418388807781621e+00 3.5684272490397353e+00 5.3634580368391855e+00 0 0 0
397 1 8.0986726212221019e+00 4.5118378876699561e+00 4.4541386621524106e+00 0 0 0
394 1 7.1958354376925806e+00 5.4070168934851646e+00 5.3494558744919019e+00 0 0 0
442 1 1.0668335923940660e+01 5.3604455489657061e+00 5.3611653892041353e+00 0 0 0
399 1 9.8181301639396548e+00 6.2849054909170716e+00 4.4637940658773196e+00 0 0 0
149 1 1.1594386798486411e+01 8.9967882615893691e-01 8.7440113702180677e-01 0 0 0
151 1 1.3393791187263668e+01 2.6424452483615304e+00 9.2801207170180389e-01 0 0 0
157 1 1.1657307117339538e+01 4.4713986441507396e+00 9.2549020755410172e-01 0 0 0
201 1 1.4230792239607219e+01 3.5246473727827068e+00 3.9378403988380113e-02 0 0 0
159 1 1.3395562198670008e+01 6.2835181818474712e+00 9.4014034316813599e-01 0 0 0
152 1 1.3384161093511217e+01 8.6426149699958466e-01 2.6853346677459440e+00 0 0 0
150 1 1.1645833880635275e+01 2.6708881363471559e+00 2.6908531567636267e+00 0 0 0
194 1 1.4259151865693129e+01 1.7242650221526787e+00 1.8193299047598619e+00 0 0 0
156 1 1.2516542206383789e+01 3.5647406514028779e+00 1.8130737776152168e+00 0 0 0
160 1 1.3408860216431881e+01 4.4548047912128146e+00 2.7458580951711835e+00 0 0 0
202 1 1.4267949762293107e+01 5.3577761577108758e+00 1.8473554123699241e+00 0 0 0
158 1 1.1630752812960944e+01 6.2824059798229683e+00 2.6814716951252171e+00 0 0 0
164 1 1.2490965631459808e+01 7.1231109883237078e+00 1.8194189446547591e+00 0 0 0
435 1 1.2525281214154912e+01 1.7620763261305579e+00 3.5524370743926861e+00 0 0 0
443 1 1.2449782349788890e+01 5.3785243957983866e+00 3.6154948540380278e+00 0 0 0
437 1 1.1640955852589272e+01 8.6929203065959448e-01 4.4968508687512436e+00 0 0 0
439 1 1.3373528960585482e+01 2.6764749025070413e+00 4.4620962532620565e+00 0 0 0
445 1 1.1563414613828305e+01 4.4932783479038125e+00 4.4846649613798757e+00 0 0 0
444 1 1.2464226401313001e+01 3.6116693347922415e+00 5.3770828394781196e+00 0 0 0
447 1 1.3365578587721306e+01 6.2635021645971092e+00 4.4478747506869185e+00 0 0 0
452 1 1.2485192299364680e+01 7.1315128887435497e+00 5.3830607208443224e+00 0 0 0
146 1 1.0706478982848862e+01 1.7647285644784199e+00 1.7855360207331235e+00 0 0 0
154 1 1.0735050612529035e+01 5.3620799433934287e+00 1.7868362822967110e+00 0 0 0
441 1 1.0732071774984316e+01 3.5694850341325419e+00 3.5664061709657835e+00 0 0 0
434 1 1.0747824738936323e+01 1.8489225868085399e+00 5.3505188617709747e+00 0 0 0
155 1 1.2520070488196714e+01 5.3468072438775094e+00 5.4776889928374345e-02 0 0 0
153 1 1.0705389576953916e+01 3.5785352339885672e+00 2.8614558061217238e-02 0 0 0
147 1 1.2515835696323359e+01 1.8004064761752006e+00 4.9877503715841986e-02 0 0 0
197 1 1.5160454104229430e+01 8.7860182783406704e-01 9.1098659615884081e-01 0 0 0
245 1 1.8752627014242989e+01 9.0333202221128972e-01 8.7622774139412163e-01 0 0 0
199 1 1.6960968466145584e+01 2.6762126691439785e+00 9.3952183444880455e-01 0 0 0
247 1 2.0575176983315213e+01 2.6892414072613851e+00 9.2138751554476694e-01 0 0 0
205 1 1.5148900269674924e+01 4.4577834312680871e+00 8.9791184910846744e-01 0 0 0
253 1 1.8735970148542442e+01 4.4735361207623523e+00 8.7622493135989388e-01 0 0 0
207 1 1.6924707906551259e+01 6.2495196573352878e+00 8.8140840088798644e-01 0 0 0
255 1 2.0532122037855395e+01 6.2395198476464033e+00 8.9630499046259127e-01 0 0 0
200 1 1.6962252602908361e+01 8.7453600273841414e-01 2.6958530470694706e+00 0 0 0
248 1 2.0538059194806458e+01 9.1454867643188698e-01 2.6859272671798462e+00 0 0 0
198 1 1.5189366147376978e+01 2.6475496125102702e+00 2.7065231225965274e+00 0 0 0
242 1 1.7826451802938852e+01 1.7714832497268229e+00 1.8069564479257871e+00 0 0 0
246 1 1.8760417844390499e+01 2.6611658415559365e+00 2.6853256616645669e+00 0 0 0
204 1 1.6053048014976973e+01 3.5684895159654606e+00 1.8075359288872928e+00 0 0 0
208 1 1.7012977387389174e+01 4.4463895719648407e+00 2.6794066540781700e+00 0 0 0
252 1 1.9628436863379921e+01 3.5609741988676995e+00 1.8004795003080001e+00 0 0 0
256 1 2.0505647952312110e+01 4.4573804344483072e+00 2.7090500412299026e+00 0 0 0
250 1 1.7813469061450398e+01 5.3487647333359485e+00 1.7772156330878768e+00 0 0 0
206 1 1.5233143062876517e+01 6.2637809852939181e+00 2.6807062369656345e+00 0 0 0
254 1 1.8716986725390328e+01 6.2394328731659430e+00 2.6622106362458742e+00 0 0 0
260 1 1.9650424789896586e+01 7.1158206863760487e+00 1.8254097367487592e+00 0 0 0
481 1 1.4309398889976066e+01 2.9192720527558426e-02 3.5852886779397997e+00 0 0 0
529 1 1.7865247518873868e+01 5.1533721429148898e-03 3.5612089405262943e+00 0 0 0
483 1 1.6065899139469568e+01 1.7739833388748210e+00 3.6456846813967050e+00 0 0 0
531 1 1.9669365253238919e+01 1.7996897651419088e+00 3.5586730746570860e+00 0 0 0
535 1 2.0558630605007636e+01 2.6939376781837154e+00 4.4630780743323824e+00 0 0 0
489 1 1.4297902732059823e+01 3.5577342397282239e+00 3.6239733827646123e+00 0 0 0
537 1 1.7864962006173155e+01 3.5283383920452818e+00 3.5920611768738575e+00 0 0 0
491 1 1.6119046868678787e+01 5.3181869596825937e+00 3.6033411747464448e+00 0 0 0
539 1 1.9624459137973055e+01 5.3524308941062868e+00 3.5680322032606306e+00 0 0 0
495 1 1.6993339568075658e+01 6.2555452414451285e+00 4.4974432592005993e+00 0 0 0
543 1 2.0531539725952015e+01 6.2641447409091642e+00 4.4545020825302917e+00 0 0 0
485 1 1.5205036092223670e+01 9.0461871723602361e-01 4.5003599005008699e+00 0 0 0
533 1 1.8759055414252003e+01 8.8543508796832671e-01 4.4581280193429773e+00 0 0 0
482 1 1.4281426199437984e+01 1.8182982636551623e+00 5.3776481356696815e+00 0 0 0
487 1 1.6934903326298389e+01 2.6512063231379468e+00 4.5016604163834559e+00 0 0 0
530 1 1.7870605174722471e+01 1.7786583697381499e+00 5.3520927647601093e+00 0 0 0
493 1 1.5198187208881498e+01 4.4562784585997131e+00 4.5237984988608249e+00 0 0 0
492 1 1.6091123153965142e+01 3.5525612622215568e+00 5.4191890121293547e+00 0 0 0
541 1 1.8703384084718785e+01 4.4426209879123526e+00 4.4261027289777823e+00 0 0 0
540 1 1.9641248838433963e+01 3.5645522218413310e+00 5.3531871024055633e+00 0 0 0
490 1 1.4285021439286002e+01 5.3373151805589423e+00 5.3653631192824074e+00 0 0 0
538 1 1.7852687303755513e+01 5.3636636709050398e+00 5.3622574992613350e+00 0 0 0
484 1 1.6052360151850177e+01 1.9857331006659092e-02 5.3440121009508132e+00 0 0 0
298 1 2.1395973863154346e+01 5.3433501457950419e+00 5.3922254072015408e+00 -1 0 0
249 1 1.7844969772901479e+01 3.5612624302649345e+00 6.6760890106979968e-03 0 0 0
195 1 1.6083660826050973e+01 1.8120476760633910e+00 2.6249926261725426e-02 0 0 0
21 1 8.9819885424341972e-01 8.0294962818371545e+00 9.2880500447463776e-01 0 0 0
69 1 4.4799331824607691e+00 8.0051049692358909e+00 9.0788242327922730e-01 0 0 0
23 1 2.7290708548917282e+00 9.7673592961281681e+00 8.8414748231310902e-01 0 0 0
71 1 6.2980343243406010e+00 9.7722560043136113e+00 9.4668132986991904e-01 0 0 0
24 1 2.7252251277348853e+00 8.0651392531772963e+00 2.6649096629271125e+00 0 0 0
66 1 3.5697980980385502e+00 8.8782445718928926e+00 1.7879822075952327e+00 0 0 0
72 1 6.2430822369868499e+00 8.0478439983401859e+00 2.6493680129175972e+00 0 0 0
22 1 9.1236137855178390e-01 9.8313321199937871e+00 2.6651656005727742e+00 0 0 0
70 1 4.4942388064203991e+00 9.8644681170570916e+00 2.6625182167459513e+00 0 0 0
353 1 3.6182694884760958e+00 7.1462395714889686e+00 3.5862626277191594e+00 0 0 0
309 1 9.2703960420580700e-01 8.0043286350109852e+00 4.4443738546853435e+00 0 0 0
307 1 1.7834214012477008e+00 8.9453588632687833e+00 3.5708479968812115e+00 0 0 0
357 1 4.4731509140681593e+00 8.0608624352768814e+00 4.5010566592485892e+00 0 0 0
355 1 5.3607222090192144e+00 8.9737160135878824e+00 3.5546795554352570e+00 0 0 0
359 1 6.2953019684869362e+00 9.8157206818821923e+00 4.4691899126362795e+00 0 0 0
308 1 1.8229018636461267e+00 7.1413522384028560e+00 5.3502279596774391e+00 0 0 0
354 1 3.5554505151067133e+00 8.9813606187871518e+00 5.3703996391091300e+00 0 0 0
311 1 2.6543609094615750e+00 9.8453036085916672e+00 4.4462196993948950e+00 0 0 0
306 1 1.8708469747351818e-02 8.8876767140710271e+00 5.3219174288821387e+00 0 0 0
67 1 5.3918485589290919e+00 8.9357359946126476e+00 1.8348208270709539e-02 0 0 0
18 1 9.4221233215756282e-03 8.9596499746909899e+00 1.7947756504501677e+00 0 0 0
29 1 9.2931242139501136e-01 1.1558240352536664e+01 8.9774586135591516e-01 0 0 0
77 1 4.4894427130906083e+00 1.1624054629790569e+01 8.8290813916792510e-01 0 0 0
31 1 2.6505370933165766e+00 1.3431858875576408e+01 8.9805614214607155e-01 0 0 0
79 1 6.2936521695595067e+00 1.3402936016341270e+01 9.0255078470587802e-01 0 0 0
76 1 5.4097676010173084e+00 1.0717611008115487e+01 1.7697812709635492e+00 0 0 0
28 1 1.7992395356355155e+00 1.0717412420502546e+01 1.7459450381826900e+00 0 0 0
32 1 2.6854450108734107e+00 1.1577340176969011e+01 2.6754702458302271e+00 0 0 0
80 1 6.2864104705341957e+00 1.1638284828277744e+01 2.6644529953981797e+00 0 0 0
30 1 8.7792289057920014e-01 1.3412185846393823e+01 2.6870467492744377e+00 0 0 0
74 1 3.5511180409252723e+00 1.2506065532934043e+01 1.7952820348971805e+00 0 0 0
78 1 4.4619492712727533e+00 1.3376650085191896e+01 2.6604569864741001e+00 0 0 0
365 1 4.4276806839735574e+00 1.1627384358063216e+01 4.4361852268544686e+00 0 0 0
315 1 1.8141913276216022e+00 1.2546733408579421e+01 3.5814099378040374e+00 0 0 0
319 1 2.6902908236147169e+00 1.3409338847760120e+01 4.4521356717571772e+00 0 0 0
363 1 5.3225079321238900e+00 1.2486396072328759e+01 3.5395544756358817e+00 0 0 0
367 1 6.2130274575388533e+00 1.3384716153247055e+01 4.4428274961668386e+00 0 0 0
317 1 9.3564886744457110e-01 1.1610853711819894e+01 4.4460351811658292e+00 0 0 0
316 1 1.7952262360977449e+00 1.0716581969172834e+01 5.3829503927557907e+00 0 0 0
364 1 5.3950436134759867e+00 1.0736408324621380e+01 5.3230883742169697e+00 0 0 0
362 1 3.5645745200203711e+00 1.2506947558582668e+01 5.3458148023504082e+00 0 0 0
410 1 7.1263145154231156e+00 1.2488364369431284e+01 5.3497190192201520e+00 0 0 0
372 1 5.3376665993081343e+00 1.4250990681138067e+01 5.3349559617178484e+00 0 0 0
314 1 4.3562922503787307e-02 1.2520304879996798e+01 5.3612930904163854e+00 0 0 0
313 1 2.2159001922084736e-02 1.0715679181433758e+01 3.5970121546286977e+00 0 0 0
361 1 3.5726823907266168e+00 1.0744172677862011e+01 3.5563004085592627e+00 0 0 0
117 1 8.0520557363654000e+00 8.0545123550298339e+00 9.0511701962532742e-01 0 0 0
115 1 8.9254708375416314e+00 8.9223738654575317e+00 4.3624449711601124e-04 0 0 0
119 1 9.8703928900880111e+00 9.7790133980431442e+00 8.8773652293742000e-01 0 0 0
116 1 8.9351093420677330e+00 7.1444592411430383e+00 1.7370341488578604e+00 0 0 0
114 1 7.2071408525980711e+00 8.9162314154268376e+00 1.8039214182521894e+00 0 0 0
120 1 9.8253792230765047e+00 8.0290155516875075e+00 2.6694384607846486e+00 0 0 0
118 1 8.0807686563554970e+00 9.7754961527446422e+00 2.7321824722082315e+00 0 0 0
401 1 7.1641309304487022e+00 7.1525921020229219e+00 3.5404758731216712e+00 0 0 0
403 1 8.9632994695952330e+00 8.9306601592304791e+00 3.5982445147209488e+00 0 0 0
407 1 9.8345398319352970e+00 9.8555408910120548e+00 4.4712922105438668e+00 0 0 0
404 1 8.9132170887402822e+00 7.1408775097903439e+00 5.3269897283515313e+00 0 0 0
402 1 7.1536617927599755e+00 8.9392451150240557e+00 5.3513758515016994e+00 0 0 0
405 1 8.0423356605310108e+00 8.0209671278395653e+00 4.4513586122754170e+00 0 0 0
450 1 1.0694220170244988e+01 8.9203958329447524e+00 5.3479395904157849e+00 0 0 0
124 1 8.9648381993298507e+00 1.0700890028773481e+01 1.8578181595209458e+00 0 0 0
409 1 7.1941994507002294e+00 1.0689799635851168e+01 3.5911830064492611e+00 0 0 0
121 1 7.1771022645217233e+00 1.0678040996628976e+01 2.4950101118248785e-02 0 0 0
125 1 8.0787578764668648e+00 1.1599427573908066e+01 9.4175291452089804e-01 0 0 0
127 1 9.8309422042714250e+00 1.3412462468199736e+01 9.0125093553661451e-01 0 0 0
412 1 8.9357596508062187e+00 1.0738680100527068e+01 5.3811898333962782e+00 0 0 0
128 1 9.8891258023447595e+00 1.1617393269671997e+01 2.6566707768175437e+00 0 0 0
122 1 7.1850702582890387e+00 1.2513073945911309e+01 1.7888150398905958e+00 0 0 0
126 1 8.0448919719512553e+00 1.3382732212295782e+01 2.6878081095391804e+00 0 0 0
411 1 8.9559536652970042e+00 1.2474172519196500e+01 3.5886866518585547e+00 0 0 0
413 1 8.0554273539488648e+00 1.1637955591403157e+01 4.4285187600343123e+00 0 0 0
415 1 9.8405353744251443e+00 1.3358028019022941e+01 4.4183955363773624e+00 0 0 0
420 1 8.9020579591073119e+00 1.4226738718847992e+01 5.3430842384805990e+00 0 0 0
123 1 8.9365352389472790e+00 1.2488424445492093e+01 3.0157825158224252e-02 0 0 0
165 1 1.1631740920865020e+01 7.9879626651100004e+00 9.3436343998924332e-01 0 0 0
163 1 1.2491581231046794e+01 8.8987115604698612e+00 2.9569657504674850e-02 0 0 0
167 1 1.3371833596470179e+01 9.8193942453277234e+00 9.2677103717911580e-01 0 0 0
168 1 1.3351728634234711e+01 8.0286672519665263e+00 2.7031033442636963e+00 0 0 0
210 1 1.4260592807722817e+01 8.9317224338002710e+00 1.8087010898856160e+00 0 0 0
166 1 1.1592350891828984e+01 9.7623653027921247e+00 2.6644845949210989e+00 0 0 0
451 1 1.2463603517354230e+01 8.8853006947214705e+00 3.5981716776791854e+00 0 0 0
453 1 1.1605893168535877e+01 8.0342841178027111e+00 4.4400634693491128e+00 0 0 0
455 1 1.3439095413248165e+01 9.7399241998062518e+00 4.4584849256035719e+00 0 0 0
449 1 1.0779235005446793e+01 7.1778256609977600e+00 3.5643195422666518e+00 0 0 0
162 1 1.0742827552269556e+01 8.9036457366328285e+00 1.7618237998609458e+00 0 0 0
172 1 1.2500553706910962e+01 1.0655031131355475e+01 1.7765061546597827e+00 0 0 0
460 1 1.2459644235666756e+01 1.0689153456647944e+01 5.3476320020838415e+00 0 0 0
169 1 1.0733546489596655e+01 1.0696731516278977e+01 3.2696788448244182e-02 0 0 0
173 1 1.1635593193150779e+01 1.1574120310382035e+01 9.2140525657835737e-01 0 0 0
175 1 1.3395722155652503e+01 1.3416246943437756e+01 9.4499565181234979e-01 0 0 0
176 1 1.3393783403206811e+01 1.1572785144708250e+01 2.6653454008831363e+00 0 0 0
174 1 1.1628384268531125e+01 1.3381302465183772e+01 2.6873016257561182e+00 0 0 0
218 1 1.4262863262500794e+01 1.2491200967380690e+01 1.7963553063911037e+00 0 0 0
180 1 1.2485576814913063e+01 1.4255198172093781e+01 1.7935624902742078e+00 0 0 0
459 1 1.2493304817938984e+01 1.2491526117584804e+01 3.5719061096516027e+00 0 0 0
461 1 1.1622464740682103e+01 1.1575887974926282e+01 4.4369743083755946e+00 0 0 0
463 1 1.3372777957245518e+01 1.3383057246216664e+01 4.4932248716987706e+00 0 0 0
506 1 1.4261425118979588e+01 1.2487707372249959e+01 5.3451408848026736e+00 0 0 0
457 1 1.0736391574512105e+01 1.0710480263747115e+01 3.5656664036549079e+00 0 0 0
458 1 1.0739954331528734e+01 1.2462054949938699e+01 5.3065716850376505e+00 0 0 0
171 1 1.2516403511540545e+01 1.2472215319397842e+01 4.1604739385925155e-02 0 0 0
170 1 1.0749993726930025e+01 1.2495972778757476e+01 1.8166137339454285e+00 0 0 0
213 1 1.5172441246948715e+01 8.0700649745461330e+00 9.2636138160863946e-01 0 0 0
261 1 1.8754212284619754e+01 8.0466725777083479e+00 8.9611367487931270e-01 0 0 0
215 1 1.7011008459196560e+01 9.7970486297972350e+00 9.1473281557961517e-01 0 0 0
263 1 2.0506583003624208e+01 9.8202171216015213e+00 9.0086370789053394e-01 0 0 0
212 1 1.6090536671288078e+01 7.1505918638316750e+00 1.8266744096535523e+00 0 0 0
216 1 1.6957132995999714e+01 8.0171973276762412e+00 2.6903679285186208e+00 0 0 0
258 1 1.7879471763739236e+01 8.9140574821947727e+00 1.8059003015582966e+00 0 0 0
264 1 2.0504389533423183e+01 8.0022587745146758e+00 2.6612286133145018e+00 0 0 0
214 1 1.5167297081579443e+01 9.7536176298119326e+00 2.6658404306371359e+00 0 0 0
262 1 1.8730853251919896e+01 9.8338811947128288e+00 2.6749358601470536e+00 0 0 0
497 1 1.4269540829260704e+01 7.1610013158517161e+00 3.5941189474339832e+00 0 0 0
545 1 1.7889311802512051e+01 7.1340426234861702e+00 3.5800755654978018e+00 0 0 0
499 1 1.6088903226307000e+01 8.8664373441830033e+00 3.5820174429563192e+00 0 0 0
547 1 1.9638047837672666e+01 8.9232608403659981e+00 3.5656343779005599e+00 0 0 0
549 1 1.8751554906978505e+01 8.0365204950009108e+00 4.4532981028968255e+00 0 0 0
503 1 1.6963034254199705e+01 9.8158138714350613e+00 4.4804426647580406e+00 0 0 0
551 1 2.0504228694998172e+01 9.8270121509024353e+00 4.4254414498463968e+00 0 0 0
500 1 1.6061001457700819e+01 7.1373343414358335e+00 5.3372179460510978e+00 0 0 0
548 1 1.9646906415880565e+01 7.1559066314890023e+00 5.3428327296084079e+00 0 0 0
501 1 1.5211954613819939e+01 8.0036067055149225e+00 4.4843253341127483e+00 0 0 0
498 1 1.4277387507817753e+01 8.8797334548034783e+00 5.3672985314546100e+00 0 0 0
546 1 1.7910589791774740e+01 8.8823583682262424e+00 5.3798752567507249e+00 0 0 0
556 1 1.9675983582271989e+01 1.0666441683744171e+01 5.3709026766761712e+00 0 0 0
268 1 1.9594859921862319e+01 1.0682188352660329e+01 1.7788315429513983e+00 0 0 0
209 1 1.4296800343762822e+01 7.2150582827789957e+00 6.2747236510027629e-02 0 0 0
25 1 2.1399925055062642e+01 1.0699379454176826e+01 1.5314762862533509e-02 -1 0 0
508 1 1.6035088336728212e+01 1.0674296477944898e+01 5.3654463956362628e+00 0 0 0
505 1 1.4292315380058541e+01 1.0658768815833206e+01 3.5686708417461976e+00 0 0 0
211 1 1.6109353245288233e+01 8.9322866748687328e+00 1.2936659340604206e-02 0 0 0
221 1 1.5153116159825677e+01 1.1591747764111110e+01 9.1237993618514479e-01 0 0 0
269 1 1.8716461637386530e+01 1.1588323742449933e+01 8.6049426097549120e-01 0 0 0
223 1 1.6937342212637930e+01 1.3381925046262035e+01 9.3845092097342220e-01 0 0 0
271 1 2.0537517208650581e+01 1.3394124208926206e+01 8.7138605601885322e-01 0 0 0
273 1 1.7830595787057273e+01 1.4249503478388510e+01 1.6205679805559023e-02 0 0 0
220 1 1.6069669413676493e+01 1.0730864456152933e+01 1.7774189960474120e+00 0 0 0
224 1 1.6927533414982975e+01 1.1594317051641896e+01 2.6690309003155801e+00 0 0 0
272 1 2.0496524988511005e+01 1.1603129158754108e+01 2.6467376580216264e+00 0 0 0
222 1 1.5113809257491297e+01 1.3373911086753006e+01 2.7020464026061632e+00 0 0 0
266 1 1.7835413133601989e+01 1.2489246355815474e+01 1.7449668778706355e+00 0 0 0
270 1 1.8711458734541182e+01 1.3377079643543022e+01 2.6971127240201551e+00 0 0 0
509 1 1.5185460988285241e+01 1.1535162157478315e+01 4.4934816417565111e+00 0 0 0
553 1 1.7841527060358832e+01 1.0740005581220261e+01 3.5828157406179408e+00 0 0 0
557 1 1.8719595368504717e+01 1.1575994393717597e+01 4.4447300143353852e+00 0 0 0
507 1 1.6077647102812293e+01 1.2477463558748424e+01 3.5479971880801924e+00 0 0 0
511 1 1.6964953566236638e+01 1.3392213158937217e+01 4.4688823265071402e+00 0 0 0
555 1 1.9617039938970528e+01 1.2464228239604831e+01 3.5810489156042942e+00 0 0 0
559 1 2.0548622181497738e+01 1.3397257672087484e+01 4.3848731517093569e+00 0 0 0
554 1 1.7829643070807606e+01 1.2490339020495759e+01 5.3709337735330269e+00 0 0 0
516 1 1.6048348695662881e+01 1.4252640331488752e+01 5.3322520579269792e+00 0 0 0
225 1 1.4274183967795913e+01 1.4253413881085562e+01 2.1883272398256735e-03 0 0 0
26 1 2.1400518511132887e+01 1.2486680086160383e+01 1.7889726608632086e+00 -1 0 0
265 1 1.7827185830689043e+01 1.0721288809196700e+01 2.4000965925827022e-02 0 0 0
217 1 1.4280694678452836e+01 1.0703932720989988e+01 2.0888242606500032e-02 0 0 0
37 1 8.7772270194972990e-01 1.5238075174514599e+01 8.7744784681102361e-01 0 0 0
85 1 4.4589555013907294e+00 1.5151059344909658e+01 8.9539090990481762e-01 0 0 0
39 1 2.6879734905016250e+00 1.6892578565831240e+01 8.5741231038507437e-01 0 0 0
87 1 6.2626770111060388e+00 1.6973736089161129e+01 9.2087532058305177e-01 0 0 0
45 1 9.3754050392109367e-01 1.8682564151551343e+01 8.8235473992134184e-01 0 0 0
93 1 4.5186733611094088e+00 1.8707710270394468e+01 9.0538486683351904e-01 0 0 0
47 1 2.7394393078286408e+00 2.0491991690036926e+01 9.2310503183651882e-01 0 0 0
95 1 6.2325549175813979e+00 2.0530148786533836e+01 9.0714064228930724e-01 0 0 0
36 1 1.7560038573610277e+00 1.4311044099397895e+01 1.7659186920101966e+00 0 0 0
40 1 2.6941129509887261e+00 1.5118649184846376e+01 2.6648371023359667e+00 0 0 0
84 1 5.3786411566199277e+00 1.4270832997156576e+01 1.8008678903981594e+00 0 0 0
88 1 6.1923146138610194e+00 1.5168802168056761e+01 2.6787884528939068e+00 0 0 0
82 1 3.6152521695759319e+00 1.6038980465094024e+01 1.7733696002497892e+00 0 0 0
38 1 9.1032748326107182e-01 1.6937312823289833e+01 2.6804732485528895e+00 0 0 0
44 1 1.8188530004741941e+00 1.7787005418709818e+01 1.7778598213724006e+00 0 0 0
86 1 4.5161076808985818e+00 1.6936728925963045e+01 2.6768908492739678e+00 0 0 0
92 1 5.3963006000853762e+00 1.7831876861907681e+01 1.8037582581461515e+00 0 0 0
48 1 2.7448985849714878e+00 1.8690926525497034e+01 2.6482689282256162e+00 0 0 0
90 1 3.6217490968847184e+00 1.9583542767040203e+01 1.7764962144125878e+00 0 0 0
96 1 6.2360175228408430e+00 1.8717164057247469e+01 2.6843583116128134e+00 0 0 0
46 1 9.2522802960189121e-01 2.0481427617703652e+01 2.7138456396577073e+00 0 0 0
94 1 4.5162039891159944e+00 2.0501544998958515e+01 2.7031351955759377e+00 0 0 0
321 1 1.0652712586703342e-02 1.4284160321020755e+01 3.5584562053545321e+00 0 0 0
325 1 8.7377000052145992e-01 1.5200664086900943e+01 4.4757224803918874e+00 0 0 0
369 1 3.5510295384827897e+00 1.4272700066822678e+01 3.5515064684689848e+00 0 0 0
373 1 4.4744436570205135e+00 1.5122410397549082e+01 4.4545140487791137e+00 0 0 0
417 1 7.1216874518150330e+00 1.4282543553407075e+01 3.5276091731347812e+00 0 0 0
292 1 1.8404519423550469e+00 2.1364870958621093e+01 5.3187618288040053e+00 0 -1 0
323 1 1.8054639233015395e+00 1.6043371741143321e+01 3.5771045579704071e+00 0 0 0
371 1 5.3455077277721053e+00 1.6046682408651119e+01 3.5664623549522547e+00 0 0 0
377 1 3.6153230696175473e+00 1.7860107151881895e+01 3.5509414761887816e+00 0 0 0
333 1 9.3037449738830014e-01 1.8704242962174984e+01 4.4672262648586463e+00 0 0 0
331 1 1.7907960795368649e+00 1.9555475610994726e+01 3.5702647920109958e+00 0 0 0
381 1 4.5052089659550534e+00 1.8708937992980658e+01 4.4916533772096683e+00 0 0 0
379 1 5.3865519869444238e+00 1.9632965370546991e+01 3.5811546976959652e+00 0 0 0
335 1 2.6967747630094783e+00 2.0485431101086668e+01 4.4442244657622556e+00 0 0 0
324 1 1.8234756606354634e+00 1.4286649586679788e+01 5.3576201899830247e+00 0 0 0
322 1 1.2115495573538278e-02 1.6073995090999741e+01 5.3387950574496541e+00 0 0 0
370 1 3.6276435378869878e+00 1.6036545838495275e+01 5.3673332887357068e+00 0 0 0
327 1 2.7018367907837426e+00 1.6938109733632785e+01 4.4065380744711176e+00 0 0 0
332 1 1.8125078411861757e+00 1.7831368204734190e+01 5.2876497946092114e+00 0 0 0
380 1 5.3831748923225886e+00 1.7861575243086754e+01 5.3913593772617467e+00 0 0 0
375 1 6.2018702649604176e+00 1.6921710642836970e+01 4.4712477373891595e+00 0 0 0
330 1 2.0359171240952559e-02 1.9635380258809267e+01 5.3284304498662776e+00 0 0 0
378 1 3.6404115156782071e+00 1.9608519570695439e+01 5.3741106296621561e+00 0 0 0
383 1 6.3010976427420733e+00 2.0533947992674531e+01 4.4316155613431487e+00 0 0 0
337 1 3.6470590477191278e+00 2.1393319545439439e+01 3.5902642022567681e+00 0 -1 0
42 1 6.0956697404480571e-02 1.9601183305137539e+01 1.7555379791535697e+00 0 0 0
4 1 1.8031771839082276e+00 2.1388215307940829e+01 1.7906411222755427e+00 0 -1 0
329 1 4.2235053210106953e-03 1.7817279208287239e+01 3.5702955580387958e+00 0 0 0
91 1 5.3731694370480056e+00 1.9600491611030932e+01 4.0212618804555005e-02 0 0 0
43 1 1.8152900650023391e+00 1.9575320116916306e+01 2.7888534341214181e-02 0 0 0
137 1 7.1262777352859912e+00 1.7812909145842500e+01 1.3671118695528933e-02 0 0 0
89 1 3.5629992250532991e+00 1.7805695428069221e+01 1.0011173816219982e-02 0 0 0
81 1 3.5754267326806501e+00 1.4287428872315809e+01 2.2605327085119763e-02 0 0 0
83 1 5.4092174324993829e+00 1.6057980194771410e+01 2.2570499991206024e-02 0 0 0
133 1 8.0704030562226698e+00 1.5203641647408622e+01 9.5690679815610413e-01 0 0 0